# vol_p = 1%
4000 atoms
0 bonds
0 angles
0 dihedrals
0 impropers

3 atom types

0 17.534000 xlo xhi
0 17.534000 ylo yhi
0 17.534000 zlo zhi

Masses

1 1.0
2 1.1
3 1.1

Atoms

1 0 1 13.972249 0.261865 4.345046
2 0 1 5.374727 16.975933 9.129708
3 0 1 7.727647 13.923341 12.038107
4 0 1 7.002274 14.728689 10.995094
5 0 1 13.698030 6.565936 15.243206
6 0 1 17.195200 9.391767 8.721826
7 0 1 5.491552 14.162749 16.009253
8 0 1 12.869836 10.075122 3.186535
9 0 1 16.792805 6.894439 15.856597
10 0 1 16.319973 10.589127 13.286091
11 0 1 9.988534 11.733074 6.477552
12 0 1 13.933897 4.154558 3.676543
13 0 1 6.884647 11.729615 1.185870
14 0 1 5.128908 5.415226 14.605225
15 0 1 3.857810 10.941835 8.284370
16 0 1 6.696047 10.295599 13.402043
17 0 1 8.481554 8.708827 11.013323
18 0 1 0.850751 0.216007 7.571242
19 0 1 6.386765 6.442311 2.404212
20 0 1 13.649592 7.469853 9.112199
21 0 1 6.117153 8.965862 16.823763
22 0 1 7.983159 14.461505 12.324008
23 0 1 8.828934 2.126930 0.677445
24 0 1 12.775733 11.492869 7.184803
25 0 1 13.176985 2.797562 7.845355
26 0 1 10.274025 2.874999 5.482775
27 0 1 5.677381 6.401431 6.081201
28 0 1 12.805570 16.468074 12.213652
29 0 1 7.055533 8.356903 11.609089
30 0 1 8.064139 14.049349 9.921859
31 0 1 8.450041 3.231879 15.501976
32 0 1 4.913345 7.817937 10.023528
33 0 1 12.754752 0.278553 10.197643
34 0 1 6.857435 8.732357 16.219513
35 0 1 13.295317 16.297027 8.142961
36 0 1 12.395420 6.827501 3.640560
37 0 1 12.238922 13.153415 13.856141
38 0 1 8.833442 16.741429 9.681950
39 0 1 4.371945 6.931185 12.899070
40 0 1 3.603842 0.511753 8.054157
41 0 1 0.213203 14.705857 6.336212
42 0 1 16.939961 9.343392 14.286534
43 0 1 6.037817 1.444495 6.998894
44 0 1 0.592111 5.067790 9.293661
45 0 1 16.665086 16.820889 3.788535
46 0 1 9.621410 0.264646 2.239430
47 0 1 16.803567 14.150875 2.973973
48 0 1 9.028680 1.055827 3.908075
49 0 1 10.947169 16.010829 6.839765
50 0 1 17.527150 14.211305 16.373912
51 0 1 8.264811 6.060464 2.342303
52 0 1 3.219918 17.410592 11.070385
53 0 1 12.821211 0.199322 8.157356
54 0 1 6.275214 6.340979 8.175312
55 0 1 16.674802 16.555137 2.087288
56 0 1 12.033275 10.944581 15.650188
57 0 1 17.203021 14.216268 6.186489
58 0 1 7.057924 15.405553 15.518350
59 0 1 3.747544 11.646901 5.129079
60 0 1 7.059629 11.503008 6.901934
61 0 1 7.770955 14.198858 7.515911
62 0 1 3.996018 0.829214 0.044733
63 0 1 15.771061 14.750970 15.938424
64 0 1 12.762479 12.984965 6.538792
65 0 1 1.104338 8.911352 2.270860
66 0 1 11.983296 3.444431 10.261670
67 0 1 9.026746 6.280035 11.098100
68 0 1 13.841512 7.246494 2.705155
69 0 1 10.380894 13.959885 5.162588
70 0 1 8.907431 11.958109 13.692745
71 0 1 2.865949 3.431022 0.808644
72 0 1 13.044378 14.593116 13.527412
73 0 1 14.785045 14.971017 9.144467
74 0 1 1.481958 6.174999 16.729343
75 0 1 14.657448 5.685772 17.169640
76 0 1 4.339382 10.429711 10.307989
77 0 1 15.597892 11.060365 3.549984
78 0 1 0.781066 8.838155 3.425769
79 0 1 2.784509 9.798625 15.457764
80 0 1 12.629864 3.971235 1.434161
81 0 1 10.395131 12.243295 13.446559
82 0 1 3.100483 8.110962 5.532888
83 0 1 3.016605 1.672521 13.123888
84 0 1 8.810701 11.369661 11.743546
85 0 1 9.325133 16.186387 8.183214
86 0 1 8.448210 11.898872 10.073325
87 0 1 10.010767 4.981666 10.346463
88 0 1 9.999048 0.244570 16.907156
89 0 1 12.524430 12.790438 4.488095
90 0 1 16.621216 8.540623 2.048461
91 0 1 0.547257 11.143635 2.765017
92 0 1 9.462225 13.225801 2.163353
93 0 1 8.794545 10.371379 5.905541
94 0 1 16.929759 17.086272 8.230405
95 0 1 9.767094 13.963527 9.448482
96 0 1 2.477835 13.548115 16.574389
97 0 1 14.012227 5.000752 17.029120
98 0 1 15.259438 14.813510 9.416437
99 0 1 13.085780 14.118793 5.147157
100 0 1 9.115282 17.415098 11.060588
101 0 1 15.217348 10.753200 0.345640
102 0 1 0.246539 10.638723 6.008526
103 0 1 13.986411 9.358000 14.644122
104 0 1 13.134773 12.729166 17.476126
105 0 1 5.415481 12.818784 17.237541
106 0 1 13.937740 12.704492 2.101096
107 0 1 4.137785 13.935788 7.478784
108 0 1 9.145523 6.390141 4.962387
109 0 1 4.738252 2.296031 9.906356
110 0 1 12.624783 0.113659 4.298091
111 0 1 15.428810 12.793105 13.437889
112 0 1 0.212411 10.750566 11.719937
113 0 1 0.829265 9.516840 17.251396
114 0 1 10.482504 9.647289 2.797056
115 0 1 15.862012 7.392272 9.881446
116 0 1 13.474641 11.499024 12.839782
117 0 1 17.517168 16.619063 6.003995
118 0 1 0.068121 3.555583 8.518356
119 0 1 15.993343 8.355290 7.533202
120 0 1 7.854106 16.237272 8.026692
121 0 1 8.045862 4.006217 7.283778
122 0 1 9.737923 2.343137 15.118656
123 0 1 8.234917 4.368805 6.820032
124 0 1 10.218972 15.032078 3.532571
125 0 1 4.024582 1.884407 2.640851
126 0 1 1.713968 15.494197 7.316661
127 0 1 4.823519 12.992716 16.258712
128 0 1 15.768769 6.255655 6.090571
129 0 1 12.557976 8.918155 0.386145
130 0 1 3.963699 7.471729 8.264209
131 0 1 3.321730 2.682132 6.452790
132 0 1 12.449964 13.079052 7.708714
133 0 1 11.463990 13.190642 9.517645
134 0 1 8.873804 12.392442 13.710615
135 0 1 7.177581 4.015258 3.914900
136 0 1 14.242058 1.756343 7.857607
137 0 1 10.242872 16.578070 14.261629
138 0 1 14.790683 17.012826 0.307633
139 0 1 17.098450 10.039428 3.908059
140 0 1 0.089850 10.389650 2.165408
141 0 1 12.728667 5.892982 14.280871
142 0 1 0.176121 7.842599 8.930303
143 0 1 11.434040 17.374321 8.583764
144 0 1 16.569905 17.230386 11.356422
145 0 1 8.528846 3.956799 4.012681
146 0 1 3.648463 1.187673 2.318839
147 0 1 10.034078 12.511321 7.026580
148 0 1 6.300320 0.147226 8.932209
149 0 1 14.274619 12.710247 5.305071
150 0 1 11.379958 7.444144 8.160329
151 0 1 1.891735 15.807733 6.127166
152 0 1 16.041950 7.266096 1.942908
153 0 1 10.786666 12.832521 16.640212
154 0 1 12.479011 11.023873 5.978175
155 0 1 4.059077 8.185717 5.109752
156 0 1 17.206457 14.812585 2.725125
157 0 1 1.123148 1.223873 2.087908
158 0 1 0.437191 15.822208 8.043298
159 0 1 16.095395 10.269618 7.000261
160 0 1 17.065507 11.245882 5.905544
161 0 1 12.130147 13.556449 11.834359
162 0 1 7.120723 2.293445 15.626019
163 0 1 13.135839 7.952375 12.315685
164 0 1 7.910596 2.117394 9.291481
165 0 1 1.003046 15.051717 17.082693
166 0 1 17.345682 8.881689 0.087494
167 0 1 9.627401 4.463035 12.669937
168 0 1 7.679382 0.486565 8.170315
169 0 1 1.162724 2.682906 2.754979
170 0 1 3.734788 15.684815 13.587759
171 0 1 2.700323 14.587037 0.967067
172 0 1 9.153044 16.169122 1.527115
173 0 1 11.519870 6.864875 6.537616
174 0 1 7.038889 5.302095 12.742671
175 0 1 6.055211 15.469875 14.813173
176 0 1 14.117347 1.793797 12.670963
177 0 1 13.295612 6.044461 15.178935
178 0 1 16.927361 12.976443 0.218425
179 0 1 11.704618 7.394053 5.599225
180 0 1 14.868677 9.479297 11.853249
181 0 1 1.978882 4.087534 13.462654
182 0 1 5.281873 4.138486 15.706076
183 0 1 16.968442 3.794056 13.285703
184 0 1 17.035506 10.924763 14.453290
185 0 1 9.380942 9.870384 14.778261
186 0 1 10.306083 3.748979 1.681001
187 0 1 7.254097 1.700148 2.501571
188 0 1 4.916440 10.657014 0.045488
189 0 1 16.812728 16.674936 0.040819
190 0 1 11.586702 13.970889 16.213478
191 0 1 14.355538 2.247326 16.405520
192 0 1 3.568507 11.112789 12.827282
193 0 1 7.061063 17.139534 14.141236
194 0 1 10.243425 4.676945 6.497953
195 0 1 14.333118 9.897566 6.378589
196 0 1 2.520032 7.702707 5.215194
197 0 1 12.664217 0.640700 17.004302
198 0 1 9.558823 7.563317 17.210657
199 0 1 12.293641 0.666947 10.761547
200 0 1 16.813669 3.569592 14.279801
201 0 1 5.202319 3.521104 7.121314
202 0 1 11.905177 8.212816 14.175225
203 0 1 7.568881 6.008810 16.904947
204 0 1 10.785370 3.822846 0.248911
205 0 1 17.085151 12.823716 10.250578
206 0 1 5.176962 5.830543 0.715319
207 0 1 0.522264 13.713892 17.381436
208 0 1 8.003305 11.282422 17.037096
209 0 1 0.176466 12.988680 7.765502
210 0 1 12.311198 11.938626 3.605542
211 0 1 5.573695 6.514870 11.709509
212 0 1 9.419847 6.738156 2.724562
213 0 1 0.104736 2.757969 4.821041
214 0 1 0.902829 12.033617 3.535786
215 0 1 17.107038 11.174080 14.390807
216 0 1 1.690438 2.945257 0.264356
217 0 1 8.979099 14.119002 16.340735
218 0 1 15.499304 16.655286 4.164298
219 0 1 7.593612 2.408473 11.812245
220 0 1 12.199834 0.348177 16.324127
221 0 1 9.356882 6.731118 13.315185
222 0 1 15.001381 15.401683 15.559550
223 0 1 14.532721 14.463319 0.662179
224 0 1 1.269659 11.683055 8.349151
225 0 1 3.328679 14.796539 16.844508
226 0 1 2.721213 13.847644 12.391506
227 0 1 8.447851 4.361406 4.139975
228 0 1 13.696741 14.175633 3.751303
229 0 1 17.369957 11.039486 9.862320
230 0 1 8.503289 10.489160 10.382134
231 0 1 6.035868 1.174447 5.293211
232 0 1 0.590001 2.207609 12.636518
233 0 1 0.938549 13.982451 5.490726
234 0 1 10.998038 11.019561 4.685629
235 0 1 7.441884 3.757586 8.109872
236 0 1 9.364252 7.453076 4.961528
237 0 1 6.073723 1.578059 10.224948
238 0 1 3.193689 17.455928 10.887835
239 0 1 4.955121 13.558157 3.532310
240 0 1 15.109577 12.457975 14.072554
241 0 1 1.357798 12.657539 4.447689
242 0 1 17.269674 5.012628 10.620205
243 0 1 10.874635 13.464119 4.856566
244 0 1 4.905794 1.144054 0.615677
245 0 1 10.060868 13.530646 7.802158
246 0 1 0.529129 9.742541 4.545691
247 0 1 2.813794 10.714112 14.068924
248 0 1 13.221568 11.351185 10.945953
249 0 1 4.501511 11.761687 2.973409
250 0 1 8.597238 4.984976 15.784546
251 0 1 5.759670 9.984661 5.453170
252 0 1 11.582071 7.411635 6.004921
253 0 1 14.635867 0.781219 7.067444
254 0 1 11.812006 6.040999 6.211668
255 0 1 11.890433 2.170428 0.863540
256 0 1 14.113541 16.392400 3.844970
257 0 1 14.780755 2.447047 17.118536
258 0 1 0.779389 8.642746 12.380114
259 0 1 12.528410 15.227243 4.560349
260 0 1 11.141111 0.033938 5.483817
261 0 1 15.751039 16.430918 13.863348
262 0 1 3.345803 12.736406 11.476531
263 0 1 16.754232 11.592061 0.943816
264 0 1 0.524943 6.846794 5.874320
265 0 1 4.725956 11.357667 7.041766
266 0 1 1.555413 2.186037 9.681036
267 0 1 6.080952 14.330456 12.500418
268 0 1 6.826149 3.200752 9.187497
269 0 1 16.861818 10.374862 1.196348
270 0 1 7.455632 16.851662 9.311339
271 0 1 4.670236 15.133651 14.542554
272 0 1 15.748645 11.559266 14.058769
273 0 1 6.163499 8.059667 17.480987
274 0 1 1.760465 9.703710 11.221477
275 0 1 9.127264 2.627037 10.909810
276 0 1 11.481134 8.509195 7.946026
277 0 1 1.174382 8.691622 10.656717
278 0 1 8.020194 7.505931 5.635011
279 0 1 0.174227 17.195291 16.633832
280 0 1 5.063084 13.505089 13.874498
281 0 1 7.682944 10.018765 0.233299
282 0 1 0.751837 13.173293 10.419015
283 0 1 15.694362 13.377328 16.510277
284 0 1 2.948781 6.661593 6.324706
285 0 1 6.723129 8.054611 5.778183
286 0 1 0.461028 2.592957 9.617880
287 0 1 0.394937 16.942620 2.263706
288 0 1 11.366896 7.064973 6.842246
289 0 1 6.289718 0.586600 2.518108
290 0 1 15.637655 11.126888 10.890111
291 0 1 11.992303 13.927919 14.966250
292 0 1 4.380203 13.453690 12.945785
293 0 1 2.389501 1.790112 8.172171
294 0 1 10.891085 16.285595 13.052984
295 0 1 0.019035 1.459658 17.150695
296 0 1 4.018187 15.269045 1.374461
297 0 1 0.646160 8.746538 4.780411
298 0 1 14.366521 3.332179 11.250065
299 0 1 11.613325 4.847306 1.294846
300 0 1 5.850764 3.294653 12.531505
301 0 1 6.813773 1.464939 15.653847
302 0 1 14.598086 11.205067 2.603412
303 0 1 16.814544 4.065058 9.880324
304 0 1 3.182062 9.954351 3.937314
305 0 1 15.262218 11.153798 1.357435
306 0 1 2.446062 3.310148 9.720085
307 0 1 4.338143 4.665475 17.248833
308 0 1 12.789921 14.214750 1.092192
309 0 1 9.702077 5.332578 15.572823
310 0 1 13.496297 2.639137 0.059311
311 0 1 14.224655 4.106680 8.711059
312 0 1 12.225696 0.184903 7.460147
313 0 1 11.351662 7.992861 4.415738
314 0 1 16.734050 16.464070 9.471941
315 0 1 1.755587 0.277602 5.426152
316 0 1 16.612241 7.611022 17.355001
317 0 1 4.796830 15.463090 12.269875
318 0 1 5.446750 16.137738 1.718996
319 0 1 8.463942 1.294919 5.926271
320 0 1 8.513535 10.187946 10.443432
321 0 1 0.171595 14.380969 13.688040
322 0 1 12.118676 3.804703 11.386062
323 0 1 9.233159 7.614054 11.588917
324 0 1 15.378440 10.170627 2.261932
325 0 1 10.703542 3.413619 6.225784
326 0 1 3.821502 7.345696 2.815563
327 0 1 16.266956 15.435064 4.299982
328 0 1 9.269367 2.216744 16.512963
329 0 1 6.596408 1.421009 7.386299
330 0 1 6.279696 17.283632 5.018894
331 0 1 0.349305 14.553347 10.171084
332 0 1 10.675345 8.678871 17.289761
333 0 1 6.840586 14.159160 12.974167
334 0 1 5.090287 9.443513 0.317461
335 0 1 9.947412 3.425779 0.247340
336 0 1 12.682547 0.459591 0.541005
337 0 1 11.015325 0.235604 15.991294
338 0 1 17.452448 13.594746 12.642333
339 0 1 12.808894 6.142408 5.072073
340 0 1 6.690177 14.322035 8.163199
341 0 1 10.090359 9.984115 5.605203
342 0 1 16.032358 14.105822 8.636338
343 0 1 7.877558 6.659253 5.434754
344 0 1 14.608717 17.084368 5.483115
345 0 1 9.424868 12.284169 10.205648
346 0 1 2.530810 13.388124 3.853548
347 0 1 4.908922 1.526046 17.008545
348 0 1 15.094767 2.421805 10.762424
349 0 1 12.944665 6.609768 17.145708
350 0 1 15.938412 3.099349 7.899806
351 0 1 10.156108 10.872336 15.664125
352 0 1 4.550704 16.158151 7.123878
353 0 1 4.173878 3.484258 14.752439
354 0 1 6.051670 5.148724 10.864558
355 0 1 11.684447 1.485392 0.738514
356 0 1 5.796748 15.550213 12.442887
357 0 1 14.354769 1.568168 10.593275
358 0 1 12.074370 6.692191 16.652752
359 0 1 6.751370 9.494178 0.555767
360 0 1 1.198610 12.178448 17.481132
361 0 1 15.593566 13.017854 8.803140
362 0 1 16.706189 13.343744 2.316201
363 0 1 16.689062 0.604450 15.194690
364 0 1 6.289890 7.044277 2.664147
365 0 1 16.441856 13.270514 4.931893
366 0 1 0.667459 3.170331 4.492869
367 0 1 2.382403 6.356967 1.349811
368 0 1 5.302467 2.774297 10.584892
369 0 1 11.101723 7.717436 14.049441
370 0 1 0.334113 0.610478 8.683190
371 0 1 8.191539 13.133242 17.079630
372 0 1 16.234967 15.855121 4.467000
373 0 1 12.108399 0.856983 7.400823
374 0 1 8.558496 13.658710 5.208707
375 0 1 9.723678 13.777549 6.541260
376 0 1 7.926352 8.939647 3.890048
377 0 1 6.023035 6.719220 10.757509
378 0 1 6.502901 12.642718 13.901200
379 0 1 3.340291 14.386132 3.928955
380 0 1 6.522191 16.249125 0.188198
381 0 1 6.748652 12.368302 9.765163
382 0 1 5.487642 5.876841 10.311102
383 0 1 3.651333 1.905101 5.860326
384 0 1 6.785971 14.622746 5.035802
385 0 1 14.411565 6.720491 1.263799
386 0 1 13.396608 4.290051 7.003549
387 0 1 10.797340 8.223095 14.387656
388 0 1 6.364299 13.333237 8.157978
389 0 1 2.120754 9.789468 6.600534
390 0 1 1.403825 5.185770 3.459401
391 0 1 10.756826 5.608421 6.914195
392 0 1 15.914825 1.878944 15.032759
393 0 1 1.177165 5.550272 1.316774
394 0 1 0.519290 2.689576 14.050261
395 0 1 15.369107 3.508440 7.011507
396 0 1 4.292637 15.352196 15.950690
397 0 1 5.014021 4.974753 14.460199
398 0 1 14.176700 13.764907 7.999916
399 0 1 3.122889 11.884281 4.834143
400 0 1 17.378142 5.026934 10.615731
401 0 1 6.012413 11.765106 12.634696
402 0 1 1.287239 12.183714 2.567999
403 0 1 6.727683 13.058223 12.357613
404 0 1 6.057449 0.867233 9.804453
405 0 1 0.453026 0.426866 2.430322
406 0 1 4.036049 13.572099 10.104851
407 0 1 7.027898 14.525120 4.111317
408 0 1 4.196593 12.640133 6.053192
409 0 1 3.814578 6.989314 9.762414
410 0 1 5.384153 16.561768 9.230748
411 0 1 6.963389 7.644595 8.701158
412 0 1 5.507428 8.005301 7.436025
413 0 1 5.247189 7.115593 2.123562
414 0 1 12.887167 14.556355 2.585073
415 0 1 6.216205 4.506239 3.756938
416 0 1 14.700914 13.662827 1.843020
417 0 1 4.934880 12.873867 4.457318
418 0 1 12.991296 14.804226 0.750112
419 0 1 14.321119 8.597224 10.614828
420 0 1 9.181500 9.574223 10.920337
421 0 1 3.673456 12.609047 2.888265
422 0 1 0.257517 8.439809 15.838719
423 0 1 8.875893 12.295140 8.980833
424 0 1 16.712335 10.364374 7.617256
425 0 1 2.137762 2.012351 12.602146
426 0 1 7.645151 5.714301 7.910482
427 0 1 14.336679 6.688992 12.538014
428 0 1 0.711401 5.842218 6.214050
429 0 1 0.026240 9.104587 12.381121
430 0 1 16.552382 0.409886 6.859059
431 0 1 14.887671 3.999344 3.479747
432 0 1 17.313546 7.578239 14.746126
433 0 1 2.432817 5.389581 16.219450
434 0 1 12.188409 17.040776 11.138978
435 0 1 11.477166 3.423737 6.854924
436 0 1 12.678947 1.420891 6.865808
437 0 1 16.430395 0.516980 12.213047
438 0 1 8.210327 8.537075 7.740752
439 0 1 0.801979 2.715896 13.886755
440 0 1 0.308446 16.098179 10.637718
441 0 1 14.845395 7.780786 14.831808
442 0 1 16.903916 11.093125 3.583137
443 0 1 14.312910 6.002810 2.728740
444 0 1 3.917190 11.248610 5.189436
445 0 1 10.889158 8.176873 0.324502
446 0 1 12.050945 1.169122 1.137031
447 0 1 9.323445 13.278817 16.201857
448 0 1 2.187576 7.622303 7.403971
449 0 1 13.599483 8.971604 12.801024
450 0 1 13.885478 11.503226 1.691141
451 0 1 3.231594 2.906503 3.449139
452 0 1 4.362278 9.823303 11.851081
453 0 1 13.836106 12.183493 16.764543
454 0 1 13.010784 12.440711 5.267246
455 0 1 12.066729 11.473528 0.571759
456 0 1 15.443710 12.299035 14.567083
457 0 1 8.989838 5.717316 7.871969
458 0 1 0.423021 13.489418 14.019878
459 0 1 13.513534 3.642127 0.156442
460 0 1 3.995834 10.933969 5.840363
461 0 1 1.417060 8.999815 1.254039
462 0 1 4.943072 9.826208 10.761693
463 0 1 1.155296 16.615344 1.538110
464 0 1 9.963684 14.695327 16.258278
465 0 1 15.075967 10.955400 12.479013
466 0 1 12.998899 9.236222 2.211770
467 0 1 12.636327 11.731946 7.270690
468 0 1 16.296222 12.807386 16.433273
469 0 1 0.968289 15.975893 17.325671
470 0 1 3.782768 15.462630 2.641993
471 0 1 4.661235 15.198600 16.345168
472 0 1 11.376552 13.013966 7.156042
473 0 1 5.014839 3.786799 5.900094
474 0 1 11.112992 14.581088 9.551705
475 0 1 6.449145 10.837663 13.777780
476 0 1 17.180377 1.612628 13.584733
477 0 1 15.044757 10.502355 10.152917
478 0 1 6.509548 6.518596 16.957412
479 0 1 0.168469 0.732426 7.656634
480 0 1 10.666361 12.795026 15.778751
481 0 1 8.879712 8.048110 3.814185
482 0 1 14.764035 13.548633 7.995643
483 0 1 15.841269 4.579007 6.502863
484 0 1 5.799706 0.595943 0.848673
485 0 1 13.090591 13.602395 1.764543
486 0 1 4.292434 7.608750 3.411093
487 0 1 10.755519 1.219261 1.327060
488 0 1 4.589462 10.182109 2.199346
489 0 1 16.492718 10.892128 12.655568
490 0 1 16.629975 3.940548 10.855405
491 0 1 6.058987 8.415324 2.319091
492 0 1 15.338056 6.056058 2.204517
493 0 1 8.650949 1.053100 15.069733
494 0 1 16.493163 4.772883 1.419005
495 0 1 12.127178 8.926301 11.636842
496 0 1 10.096945 10.488872 8.267487
497 0 1 13.247580 13.112741 7.572341
498 0 1 15.355219 11.247551 5.962152
499 0 1 4.364829 1.956144 1.670015
500 0 1 8.909320 14.690564 3.456683
501 0 1 5.043568 16.620530 10.385611
502 0 1 3.898076 0.630010 15.336632
503 0 1 7.954610 2.327199 10.921889
504 0 1 15.074248 5.022529 14.471311
505 0 1 14.267813 8.899340 11.208444
506 0 1 13.612988 9.481307 6.116853
507 0 1 1.120366 0.750053 8.725041
508 0 1 14.455097 2.879245 3.049433
509 0 1 12.796097 2.646824 16.381908
510 0 1 4.822256 12.119306 13.658594
511 0 1 11.639510 16.252092 13.880280
512 0 1 5.328851 15.797747 12.446349
513 0 1 8.451037 15.742376 11.802477
514 0 1 17.223701 3.520238 14.499797
515 0 1 10.813163 0.866586 7.655290
516 0 1 6.558390 14.936655 4.956898
517 0 1 10.584057 9.189681 3.623625
518 0 1 16.343197 7.658252 14.536691
519 0 1 14.738801 16.655528 14.241483
520 0 1 14.781642 17.488962 15.511504
521 0 1 1.791094 10.999718 1.885490
522 0 1 15.270765 16.523498 7.982708
523 0 1 15.311999 5.732419 2.040265
524 0 1 6.263117 2.921488 14.939328
525 0 1 13.462466 9.690541 12.812680
526 0 1 0.533190 12.134644 1.381779
527 0 1 10.439635 16.890302 3.890169
528 0 1 6.260518 1.314972 9.624520
529 0 1 7.188604 15.369614 3.447675
530 0 1 3.505962 5.771455 13.402776
531 0 1 12.214263 9.336322 10.063783
532 0 1 3.974541 5.234729 0.579727
533 0 1 12.218432 14.641999 7.648324
534 0 1 0.827156 13.654259 2.591945
535 0 1 16.164972 0.246881 8.975839
536 0 1 4.346919 9.148430 4.356383
537 0 1 3.561749 0.770982 8.297043
538 0 1 4.220986 6.818698 4.982937
539 0 1 3.321491 3.635448 2.710281
540 0 1 14.724479 1.488555 2.497885
541 0 1 8.729833 2.942671 9.446338
542 0 1 16.279736 6.679727 7.107386
543 0 1 0.072174 1.197566 7.877091
544 0 1 7.499846 3.836733 1.517727
545 0 1 5.269440 13.958555 5.576347
546 0 1 4.469991 12.226555 15.248587
547 0 1 13.184569 10.540971 7.446855
548 0 1 11.403442 1.186131 8.804930
549 0 1 15.663139 12.587413 10.289441
550 0 1 7.897755 3.679043 16.015185
551 0 1 15.348560 15.191759 4.632636
552 0 1 4.397868 1.740090 15.071339
553 0 1 11.663679 14.456480 4.473053
554 0 1 5.146867 17.334942 9.744485
555 0 1 5.841869 1.923277 8.214281
556 0 1 9.457726 5.009371 6.917385
557 0 1 3.882122 9.976750 2.702349
558 0 1 11.917116 14.789210 9.119944
559 0 1 5.905691 10.039750 3.226403
560 0 1 2.912132 9.492741 10.080432
561 0 1 3.365513 3.458374 4.163228
562 0 1 16.501781 0.070258 6.437161
563 0 1 14.817295 12.255723 4.031679
564 0 1 12.182079 12.423933 10.706819
565 0 1 7.444050 9.165296 12.129062
566 0 1 7.488028 10.409243 6.284550
567 0 1 14.565495 4.145483 10.299832
568 0 1 12.312871 13.670836 7.199426
569 0 1 0.836443 3.457275 11.900608
570 0 1 6.504276 15.455898 6.553694
571 0 1 14.889266 11.160813 15.688273
572 0 1 4.020688 8.304757 16.098588
573 0 1 2.190445 11.126185 11.774723
574 0 1 17.068625 10.386834 3.222089
575 0 1 12.758895 11.340022 16.917059
576 0 1 17.034220 11.177850 16.544787
577 0 1 10.916842 4.772986 12.285045
578 0 1 4.954702 8.852747 9.919112
579 0 1 11.573822 5.415019 15.165331
580 0 1 1.704634 4.039113 14.028878
581 0 1 2.910066 7.294904 14.725741
582 0 1 14.196187 4.375641 3.077433
583 0 1 6.375492 11.333048 14.595930
584 0 1 4.929663 11.736629 2.136565
585 0 1 1.485866 13.125785 4.379709
586 0 1 7.163178 11.095922 15.862658
587 0 1 1.998132 14.420065 17.511510
588 0 1 9.014899 13.042648 9.969757
589 0 1 4.538662 4.461438 4.047307
590 0 1 5.273128 9.513724 5.494345
591 0 1 8.624338 12.665908 5.831628
592 0 1 9.078870 14.234490 16.355006
593 0 1 16.192914 2.364106 11.844895
594 0 1 12.406017 9.205018 6.225856
595 0 1 16.958042 2.641645 3.472692
596 0 1 2.891742 0.741042 11.810211
597 0 1 6.406115 3.216301 13.468168
598 0 1 2.041681 13.446444 3.921401
599 0 1 17.459599 15.359463 16.361205
600 0 1 5.051816 13.579739 3.980602
601 0 1 11.271122 10.121785 13.893208
602 0 1 9.385284 5.507051 11.474236
603 0 1 12.008568 11.278020 13.900519
604 0 1 15.721662 4.323425 2.555388
605 0 1 5.261489 13.629150 16.977110
606 0 1 0.579959 9.159237 6.487727
607 0 1 12.916982 1.965212 13.856833
608 0 1 16.390791 1.092778 0.933187
609 0 1 7.542880 1.682968 7.539027
610 0 1 13.055202 16.475175 5.723186
611 0 1 10.258957 11.249335 7.825602
612 0 1 12.680992 8.084648 5.618642
613 0 1 14.631111 14.393511 7.482002
614 0 1 12.271336 16.718274 14.617209
615 0 1 17.090629 13.650832 4.728796
616 0 1 12.651331 0.791008 0.236907
617 0 1 15.442152 10.617249 14.604270
618 0 1 13.157935 8.355643 16.267984
619 0 1 8.506740 7.103582 10.658515
620 0 1 10.929186 10.542584 3.142908
621 0 1 0.938462 13.262486 11.213622
622 0 1 8.094283 4.108557 10.393092
623 0 1 16.412643 5.318593 2.928331
624 0 1 4.207037 3.513786 12.494107
625 0 1 13.025941 14.724720 6.159730
626 0 1 1.255708 4.754900 16.166164
627 0 1 8.420910 15.331476 15.400042
628 0 1 4.120577 8.673360 11.483037
629 0 1 0.957406 14.314096 10.340554
630 0 1 4.171290 14.323987 11.736536
631 0 1 12.947714 4.694173 8.751852
632 0 1 13.685696 11.788884 6.431864
633 0 1 8.213613 7.699931 13.671876
634 0 1 8.226897 12.525324 12.913115
635 0 1 0.792186 8.207388 6.624453
636 0 1 11.667631 5.024072 2.586883
637 0 1 9.903399 12.934471 14.790473
638 0 1 2.538391 6.794825 0.045918
639 0 1 16.319987 8.634183 6.019576
640 0 1 10.875336 12.607171 1.665487
641 0 1 17.132919 15.472823 2.334818
642 0 1 10.389181 12.349630 7.630681
643 0 1 1.430790 11.937342 4.527264
644 0 1 12.405038 16.684160 8.521816
645 0 1 16.853676 5.883614 2.456885
646 0 1 11.300068 13.545556 17.494540
647 0 1 5.357135 4.685494 0.300616
648 0 1 12.028797 14.152517 2.876655
649 0 1 15.111065 15.828060 13.145344
650 0 1 3.204088 6.842650 9.235990
651 0 1 1.631219 11.693311 13.915880
652 0 1 4.382582 8.810801 0.091172
653 0 1 2.448287 9.360844 1.331830
654 0 1 7.555800 8.272225 7.757713
655 0 1 3.949699 8.923214 17.476670
656 0 1 7.501140 0.945842 4.461785
657 0 1 7.044765 17.002189 8.773218
658 0 1 11.591448 2.739366 12.885709
659 0 1 10.055430 17.087720 7.145983
660 0 1 4.710049 12.138176 16.199867
661 0 1 12.961797 2.232094 9.063302
662 0 1 9.952899 14.796254 1.023132
663 0 1 12.324981 9.098486 11.482227
664 0 1 9.370927 16.945683 7.242853
665 0 1 13.366343 12.233449 14.845412
666 0 1 13.346418 15.902178 12.172283
667 0 1 1.043203 3.996796 14.383200
668 0 1 4.072051 7.474925 15.199374
669 0 1 7.370376 6.305751 11.099545
670 0 1 13.055798 14.009313 10.346759
671 0 1 4.469408 8.018833 7.422165
672 0 1 4.786245 10.103284 11.895109
673 0 1 4.695437 12.697367 11.539458
674 0 1 3.835333 16.621360 5.383394
675 0 1 6.492802 15.352861 9.434390
676 0 1 10.635149 7.397947 2.748040
677 0 1 6.660807 0.005044 14.235352
678 0 1 10.462908 15.189579 3.980104
679 0 1 3.539895 2.396113 15.301245
680 0 1 3.873308 17.218203 11.924090
681 0 1 14.081228 17.269054 0.118821
682 0 1 11.963595 5.365925 15.548882
683 0 1 10.783487 9.329219 13.089130
684 0 1 8.167949 2.847014 11.532851
685 0 1 5.970088 11.511835 14.769037
686 0 1 9.978228 5.493995 2.535877
687 0 1 6.025527 2.973810 13.216644
688 0 1 1.529247 5.257590 16.176079
689 0 1 3.483694 10.048483 14.173807
690 0 1 14.674412 2.719578 17.470022
691 0 1 12.091544 8.163149 9.045012
692 0 1 5.360671 0.279821 9.440723
693 0 1 16.433252 13.736879 15.014678
694 0 1 15.778661 10.094777 7.989541
695 0 1 0.055756 10.071919 11.321397
696 0 1 15.689530 0.742529 6.625257
697 0 1 1.814124 7.769181 2.013165
698 0 1 6.441091 16.725795 5.571585
699 0 1 13.121471 1.771898 7.020234
700 0 1 8.371316 16.250934 5.272702
701 0 1 16.829795 0.831531 5.541137
702 0 1 8.794765 11.980353 7.384297
703 0 1 2.509877 2.281223 1.935840
704 0 1 7.926487 6.906615 12.944955
705 0 1 13.325127 10.564215 5.058270
706 0 1 1.378067 17.479155 12.101139
707 0 1 5.278713 13.397216 14.128882
708 0 1 9.688307 6.528815 17.113442
709 0 1 4.440890 13.458002 4.533374
710 0 1 14.648551 5.166023 3.152940
711 0 1 13.539885 0.714676 12.985919
712 0 1 16.086393 7.090047 5.175248
713 0 1 12.082496 7.668469 8.094232
714 0 1 6.446915 13.219236 14.119305
715 0 1 7.790790 2.489735 9.325085
716 0 1 14.269931 10.816375 6.280088
717 0 1 14.796895 2.423721 9.943019
718 0 1 13.173261 5.914226 9.182557
719 0 1 6.042288 6.168238 0.091600
720 0 1 5.230728 2.070433 0.071315
721 0 1 12.317675 3.614639 6.003578
722 0 1 13.678707 7.718383 6.283349
723 0 1 11.718122 13.397049 1.950523
724 0 1 6.666309 10.666996 6.051037
725 0 1 3.378749 12.572353 16.952461
726 0 1 12.773975 17.372529 6.683212
727 0 1 7.527281 4.834509 0.248666
728 0 1 15.410627 4.582195 13.432132
729 0 1 5.849361 12.833931 14.326354
730 0 1 5.583517 14.254177 1.350352
731 0 1 1.709185 9.878478 7.606840
732 0 1 16.952082 9.476246 8.244877
733 0 1 8.345160 16.690467 7.187565
734 0 1 6.750177 8.494730 5.971584
735 0 1 8.564149 3.645652 6.772201
736 0 1 12.436549 11.929519 17.200712
737 0 1 13.522708 1.390853 8.722194
738 0 1 10.152756 4.184087 9.714662
739 0 1 7.034939 13.384437 5.915323
740 0 1 4.157852 10.826476 15.843958
741 0 1 4.310051 2.742892 1.606980
742 0 1 12.692043 10.503232 5.275813
743 0 1 7.928730 14.221159 15.392282
744 0 1 12.284916 10.519908 10.192682
745 0 1 0.598177 0.161467 17.280471
746 0 1 8.252498 11.584171 9.537893
747 0 1 9.008188 8.383797 16.248774
748 0 1 6.068531 15.601048 17.004690
749 0 1 17.378213 3.690908 16.066492
750 0 1 2.972173 11.646214 8.502993
751 0 1 5.953963 7.840678 7.828624
752 0 1 1.658327 6.512519 13.024409
753 0 1 1.222245 10.656622 15.063704
754 0 1 5.304746 16.000815 6.246745
755 0 1 12.920340 7.232598 11.227902
756 0 1 0.513304 1.683572 1.732717
757 0 1 7.981826 7.773605 15.236708
758 0 1 12.599854 6.089638 3.354841
759 0 1 1.913810 4.684861 8.127179
760 0 1 12.381468 6.541907 9.832781
761 0 1 8.796895 8.681123 12.747837
762 0 1 3.315876 1.484008 9.858465
763 0 1 4.913967 9.767873 15.317709
764 0 1 10.974254 1.594122 7.411405
765 0 1 7.305711 16.990028 2.950563
766 0 1 10.577384 1.965916 12.967678
767 0 1 6.161586 11.151797 15.582255
768 0 1 9.015146 3.258421 9.216368
769 0 1 10.310999 4.852172 6.488000
770 0 1 7.937874 0.724815 1.349247
771 0 1 15.291119 15.484175 4.270191
772 0 1 11.542249 2.904206 1.955602
773 0 1 10.826682 5.350035 3.072101
774 0 1 5.612568 8.892445 9.348311
775 0 1 14.070627 16.785476 14.806465
776 0 1 3.783486 17.529661 14.276659
777 0 1 15.619715 5.052248 3.640346
778 0 1 2.816453 8.037517 5.985641
779 0 1 15.820187 9.017573 6.138498
780 0 1 7.139069 13.627819 11.632564
781 0 1 16.251374 7.796984 3.299404
782 0 1 15.687144 12.369483 2.948301
783 0 1 15.999343 1.412783 13.302387
784 0 1 3.912977 16.667800 13.397889
785 0 1 11.807047 2.247184 15.535105
786 0 1 4.316553 16.267947 1.642519
787 0 1 17.527050 7.743502 16.797719
788 0 1 0.280556 3.143485 8.216050
789 0 1 16.071608 8.923623 6.981935
790 0 1 16.702944 0.937526 10.068256
791 0 1 1.611703 6.107544 6.172894
792 0 1 12.986098 12.816405 14.223979
793 0 1 2.497536 0.848065 13.510093
794 0 1 1.905604 15.874578 9.258288
795 0 1 5.389210 14.538090 13.019321
796 0 1 6.640633 13.673798 4.655977
797 0 1 6.576413 10.471268 1.247690
798 0 1 10.278356 14.980917 9.970068
799 0 1 0.709166 14.920572 4.273973
800 0 1 4.546596 9.805690 17.427162
801 0 1 11.515669 10.381515 11.389696
802 0 1 11.504384 2.410293 5.644941
803 0 1 3.986266 3.240031 4.244888
804 0 1 4.140597 15.428592 9.180626
805 0 1 0.955476 9.818111 0.353826
806 0 1 10.092871 12.423608 6.510758
807 0 1 2.217943 13.766731 13.988481
808 0 1 16.384925 15.422654 12.835799
809 0 1 8.584192 10.786136 6.989069
810 0 1 17.264145 7.330344 15.659305
811 0 1 15.186622 16.576139 15.937736
812 0 1 4.874076 13.220627 9.833797
813 0 1 2.875880 12.068739 7.068533
814 0 1 6.066097 1.518953 13.331928
815 0 1 6.019577 11.758656 9.029731
816 0 1 10.318602 7.967432 16.266151
817 0 1 3.993145 1.397893 8.584926
818 0 1 6.865768 10.875227 14.090969
819 0 1 6.400661 11.091333 3.009792
820 0 1 8.435061 6.656627 5.237793
821 0 1 2.601757 0.921393 17.040163
822 0 1 2.155403 11.468381 8.105266
823 0 1 13.976430 7.715701 11.232221
824 0 1 5.084150 10.945109 1.444893