LAMMPS (11 Mar 2013)
# energy minimization for particulate system

units lj
atom_style molecular
neighbor 0.0 bin
neigh_modify delay 0 check no one 50000 page 500000
communicate single vel yes
read_data coord.1per
  orthogonal box = (0 0 0) to (17.534 17.534 17.534)
  1 by 1 by 1 MPI processor grid
  4125 atoms
  0 = max # of 1-2 neighbors
  0 = max # of 1-3 neighbors
  0 = max # of 1-4 neighbors
  1 = max # of special neighbors

group medium type 1
4000 atoms in group medium
group COM type 3
25 atoms in group COM
group NP type 2 type 3
125 atoms in group NP
neigh_modify exclude molecule NP

fix 1 NP rigid molecule
25 rigid bodies with 125 atoms
fix 2 medium nve

compute stream medium temp/deform
compute allCorrected all temp/deform

#pair_style hybrid/overlay lj/cut 2.5 dpd/tstat 1.0 1.0 2.5 482789
#pair_coeff 1 1 lj/cut 1.0 1.0 2.5
#pair_coeff 1 2*3 lj/cut 1.0 1.0
#pair_coeff 2*3 2*3 lj/cut 1.0 1.0 1.12246
#pair_coeff * * dpd/tstat 1.0

pair_style soft 2.5
pair_coeff * * 0.0
variable prefactor equal ramp(0,30)
fix 3 all adapt 1 pair soft a * * v_prefactor

minimize 1e-6 1.0e-6 100000 100000
WARNING: Resetting reneighboring criteria during minimization (min.cpp:173)
WARNING: Using compute temp/deform with no fix deform defined (compute_temp_deform.cpp:81)
WARNING: Using compute temp/deform with no fix deform defined (compute_temp_deform.cpp:81)
Memory usage per processor = 7.80406 Mbytes
Step Temp E_pair E_mol TotEng Press 
       0            0            0            0            0            0 
       1            0            0            0            0            0 
Loop time of 0.018769 on 1 procs for 1 steps with 4125 atoms

Minimization stats:
  Stopping criterion = search direction is not downhill
  Energy initial, next-to-last, final = 
                     0                  0                  0
  Force two-norm initial, final = 0 0
  Force max component initial, final = 0 0
  Final line search alpha, max atom move = 0 0
  Iterations, force evaluations = 1 0

Pair  time (%) = 0.0184209 (98.1454)
Bond  time (%) = 0 (0)
Neigh time (%) = 0 (0)
Comm  time (%) = 0.000126123 (0.671976)
Outpt time (%) = 0 (0)
Other time (%) = 0.000221968 (1.18263)

Nlocal:    4125 ave 4125 max 4125 min
Histogram: 1 0 0 0 0 0 0 0 0 0
Nghost:    4583 ave 4583 max 4583 min
Histogram: 1 0 0 0 0 0 0 0 0 0
Neighs:    103005 ave 103005 max 103005 min
Histogram: 1 0 0 0 0 0 0 0 0 0

Total # of neighbors = 103005
Ave neighs/atom = 24.9709
Ave special neighs/atom = 0
Neighbor list builds = 0
Dangerous builds = 0

thermo 500
thermo_style custom step temp etotal pe ke press vol c_stream c_allCorrected

restart 5000 restart.sol.try

timestep 0.005
run	20000
WARNING: Using compute temp/deform with no fix deform defined (compute_temp_deform.cpp:81)
WARNING: Using compute temp/deform with no fix deform defined (compute_temp_deform.cpp:81)
Memory usage per processor = 6.70829 Mbytes
Step Temp TotEng PotEng KinEng Press Volume stream allCorre 
       1            0            0            0            0            0    5390.6732            0            0 
     500   0.23176951    6.7695137     6.428967   0.34054667    5.6502969    5390.6732   0.23115579   0.23176951 
    1000   0.49322447    13.060098    12.335387   0.72471115    11.032045    5390.6732   0.49298776   0.49322447 
    1500   0.71660089     19.16276    18.109835    1.0529256    16.243635    5390.6732   0.71684177   0.71660089 
    2000   0.93525826    25.154652    23.780446    1.3742061    21.306414    5390.6732   0.93452725   0.93525826 
    2500    1.1394688    31.068367    29.394107    1.6742595    26.399771    5390.6732    1.1390196    1.1394688 
    3000    1.3239916    36.926573    34.981188    1.9453851    31.402581    5390.6732    1.3252866    1.3239916 
    3500    1.4757186    42.743926    40.575604    2.1683225    36.357519    5390.6732    1.4712791    1.4757186 
    4000    1.6065732    48.528605    46.168013    2.3605915    41.382871    5390.6732    1.6057476    1.6065732 
    4500    1.7884018    54.285633    51.657875    2.6277584     46.33314    5390.6732    1.7918132    1.7884018 
    5000    1.9584975    60.019772    57.142087    2.8776856    51.374716    5390.6732    1.9560038    1.9584975 
    5500    2.0289792    65.733415    62.752168    2.9812468    56.314868    5390.6732    2.0287243    2.0289792 
    6000    2.1545641     71.43019    68.264417    3.1657728    61.151707    5390.6732    2.1542431    2.1545641 
    6500    2.2965407    77.111883    73.737499    3.3743837    66.052252    5390.6732    2.2970278    2.2965407 
    7000    2.4343406    82.779806    79.202948    3.5768579    71.122332    5390.6732    2.4324143    2.4343406 
    7500    2.5501299     88.43579    84.688799    3.7469908    75.950919    5390.6732      2.54436    2.5501299 
    8000    2.6379993    94.080658    90.204558    3.8761003    80.788476    5390.6732    2.6384808    2.6379993 
    8500    2.7571158     99.71423    95.663108    4.0511222      85.6957    5390.6732    2.7536569    2.7571158 
    9000    2.8100232    105.33938    101.21052    4.1288608    90.803186    5390.6732     2.813622    2.8100232 
    9500    2.9111417    110.95646    106.67902    4.2774376    95.614537    5390.6732    2.9143902    2.9111417 
   10000    3.0062347    116.56605    112.14889    4.4171609    100.72047    5390.6732      3.00627    3.0062347 
   10500    3.1304739    122.16866    117.56895    4.5997096     106.0938    5390.6732    3.1266547    3.1304739 
   11000    3.2229095    127.76399    123.02846    4.7355283    111.05178    5390.6732    3.2259719    3.2229095 
   11500    3.3364175    133.35325    128.45094    4.9023095    115.82826    5390.6732    3.3311649    3.3364175 
   12000    3.3533121    138.93713       134.01    4.9271332    120.71581    5390.6732    3.3528048    3.3533121 
   12500    3.5255698    144.51528    139.33504    5.1802373    125.60955    5390.6732    3.5297371    3.5255698 
   13000    3.5726655     150.0893    144.83987    5.2494365    130.68193    5390.6732    3.5695368    3.5726655 
   13500    3.5858056    155.65769    150.38894    5.2687437    135.34564    5390.6732     3.589806    3.5858056 
   14000    3.6932657    161.22136    155.79472    5.4266384    140.46532    5390.6732    3.6982845    3.6932657 
   14500    3.8078654    166.78051    161.18549    5.5950236    145.24183    5390.6732    3.8073276    3.8078654 
   15000    3.8804711    172.33609    166.63439    5.7017056    150.84877    5390.6732    3.8771784    3.8804711 
   15500    4.0853589    177.88692    171.88417    6.0027541    155.11561    5390.6732     4.086194    4.0853589 
   16000    4.0375733    183.43565    177.50311    5.9325411    159.99319    5390.6732    4.0343379    4.0375733 
   16500    4.1005276    188.98001    182.95497    6.0250419     165.0344    5390.6732    4.1035938    4.1005276 
   17000    4.2407082    194.52106    188.29005    6.2310139    170.22474    5390.6732    4.2442934    4.2407082 
   17500    4.3463234    200.05883    193.67263    6.3861978    174.09162    5390.6732    4.3450492    4.3463234 
   18000    4.3492947    205.59363    199.20306    6.3905637    179.61899    5390.6732    4.3421985    4.3492947 
   18500    4.4007432    211.12594    204.65978    6.4661586    184.48768    5390.6732    4.4010389    4.4007432 
   19000    4.5337296    216.65464    209.99308    6.6615601    189.27143    5390.6732    4.5341439    4.5337296 
   19500    4.5636511    222.18182    215.47629    6.7055247    194.27948    5390.6732     4.565247    4.5636511 
   20000     4.565309    227.70542    220.99746    6.7079608    199.03368    5390.6732     4.569381     4.565309 
   20001    4.5757832    227.71643    220.99308    6.7233508    199.02701    5390.6732    4.5810586    4.5757832 
Loop time of 556.557 on 1 procs for 20000 steps with 4125 atoms

Pair  time (%) = 350.612 (62.9967)
Bond  time (%) = 0.00541711 (0.000973325)
Neigh time (%) = 193.452 (34.7588)
Comm  time (%) = 7.34983 (1.32059)
Outpt time (%) = 0.0356553 (0.0064064)
Other time (%) = 5.10147 (0.916612)

Nlocal:    4125 ave 4125 max 4125 min
Histogram: 1 0 0 0 0 0 0 0 0 0
Nghost:    4692 ave 4692 max 4692 min
Histogram: 1 0 0 0 0 0 0 0 0 0
Neighs:    142750 ave 142750 max 142750 min
Histogram: 1 0 0 0 0 0 0 0 0 0

Total # of neighbors = 142750
Ave neighs/atom = 34.6061
Ave special neighs/atom = 0
Neighbor list builds = 20000
Dangerous builds = 0
